VARIABLES = "X", "Y", "U"
ZONE T="ScatterPlot"
0.0  0.0  0.001
0.5  1.0  0.005
1.0  0.5  0.010
1.5  1.5  0.015
2.0  2.0  0.020