TITLE="3D Structured Mesh"
VARIABLES="X" "Y" "Z"
ZONE I=3, J=3, K=3, F=POINT
0 0 0
1 0 0
2 0 0
0 1 0
1 1 0
2 1 0
0 2 0
1 2 0
2 2 0
0 0 1
1 0 1
2 0 1
0 1 1
1 1 1
2 1 1
0 2 1
1 2 1
2 2 1
0 0 2
1 0 2
2 0 2
0 1 2
1 1 2
2 1 2
0 2 2
1 2 2
2 2 2