VARIABLES = "x", "y", "u"
ZONE T="Plate", N=8, E=5, F=FEBLOCK, ET=QUADRILATERAL
0.0 2.5 2.5 0.0 0.5 2.0 1.75 0.65
0.0 0.0 3.0 2.0 0.5 0.75 1.75 1.6
0.0 0.025 0.025 0.0 0.005 0.02 0.0175 0.0065  
1 2 6 5
6 2 3 7
1 5 8 4
8 7 3 4
5 6 7 8