VARIABLES = "X", "Y", "U"
ZONE T="Structured Grid", I=5, J=5, F=POINT
0.0  0.0  0.001
0.25 0.0  0.002
0.5  0.0  0.003
0.75 0.0  0.004
1.0  0.0  0.005
0.0  0.25 0.002
0.25 0.25 0.004
0.5  0.25 0.006
0.75 0.25 0.008
1.0  0.25 0.010
0.0  0.5  0.003
0.25 0.5  0.006
0.5  0.5  0.009
0.75 0.5  0.012
1.0  0.5  0.015
0.0  0.75 0.004
0.25 0.75 0.008
0.5  0.75 0.012
0.75 0.75 0.016
1.0  0.75 0.020
0.0  1.0  0.005
0.25 1.0  0.010
0.5  1.0  0.015
0.75 1.0  0.020
1.0  1.0  0.025